C                                       
           1
     9.874096    0.000000    0.000000
     4.937047    8.551471    0.000000
     0.000000    0.000000   15.000000
   C 
  32
Direct configuration=    50
   0.24907289  0.24922035  0.49990487
   0.24985269  0.49902058  0.49975356
   0.24911111  0.74914442  0.49927388
   0.24951293  0.99919284  0.49928122
   0.49920556  0.24953248  0.49993863
   0.50002912  0.50005469  0.49926885
   0.49890630  0.74982121  0.49983934
   0.49989495  0.00015975  0.49979883
   0.74922655  0.24892622  0.50014337
   0.74963820  0.49904963  0.50080503
   0.74911111  0.74895724  0.50071787
   0.74966943  0.99885317  0.50023003
   0.99911665  0.24995193  0.50007440
   0.00012295  0.50039225  0.50082801
   0.99916285  0.74986255  0.50023195
   0.00005646  0.00024862  0.49991937
   0.08409227  0.08442367  0.49956702
   0.08366848  0.33454472  0.50024813
   0.08435507  0.58439437  0.50033782
   0.08363416  0.83443660  0.49982026
   0.33407137  0.08365069  0.49943791
   0.33343442  0.33306430  0.50002493
   0.33423379  0.58355979  0.49894445
   0.33324380  0.83329154  0.49941932
   0.58419638  0.08397114  0.50011255
   0.58374526  0.33403025  0.49974460
   0.58406041  0.58425798  0.49999621
   0.58352377  0.83427317  0.50011571
   0.83425938  0.08336480  0.50018083
   0.83331415  0.33314120  0.50040278
   0.83425777  0.58345182  0.50126465
   0.83342036  0.83295505  0.50037359
Direct configuration=   100
   0.23292456  0.23280429  0.52604266
   0.19561686  0.47480723  0.44677824
   0.14017467  0.62610860  0.42879984
   0.18235285  0.97058742  0.41941332
   0.45040744  0.19692673  0.49445769
   0.44233887  0.44021282  0.43001398
   0.38231481  0.63890810  0.46887086
   0.44367993  0.93142087  0.46552813
   0.73166750  0.25466446  0.53036883
   0.63496815  0.39990337  0.57440074
   0.64099787  0.69035764  0.57997997
   0.72804620  0.96702624  0.53875673
   0.97459148  0.21343084  0.49365491
   0.97753943  0.45098696  0.57561205
   0.92465724  0.67054815  0.54259520
   0.96863214  0.95909791  0.51508180
   0.08760208  0.13021841  0.42878566
   0.13871098  0.37935807  0.55465521
   0.23184117  0.71863390  0.51089355
   0.13197856  0.87916770  0.49290722
   0.35013207  0.15598185  0.44195971
   0.40083108  0.35889013  0.48347357
   0.41770159  0.71348541  0.40516796
   0.35763900  0.87579046  0.41603857
   0.59652589  0.07756357  0.51572058
   0.70264374  0.41580072  0.49709285
   0.68999136  0.65246658  0.49411691
   0.57731104  0.81284215  0.51128577
   0.88559836  0.13106188  0.51540270
   0.91045005  0.36931733  0.53550459
   0.91842437  0.66771041  0.62995275
   0.88490924  0.87711878  0.53668744
Direct configuration=   150
   0.23078553  0.19232270  0.46305893
   0.24109304  0.44753155  0.52074608
   0.18758742  0.62037318  0.52854603
   0.19229117  0.94005961  0.46984607
   0.48189665  0.20056606  0.49879167
   0.43653055  0.47621890  0.48814078
   0.36420107  0.61692257  0.45597697
   0.48552180  0.93819425  0.47870857
   0.70545028  0.26319762  0.50315081
   0.63255926  0.37794046  0.44974187
   0.70714574  0.74240538  0.57252583
   0.72694104  0.95409662  0.52990348
   0.94038814  0.20943537  0.54342230
   0.93597132  0.46968121  0.49813352
   0.94380305  0.71776104  0.52849799
   0.95570097  0.95529178  0.49950535
   0.11819321  0.10170552  0.51735521
   0.11359488  0.38836155  0.46696604
   0.20390475  0.70076601  0.45961514
   0.09959305  0.86655863  0.44642807
   0.42855182  0.10866405  0.45863300
   0.41146172  0.36615489  0.52688970
   0.41995113  0.71674481  0.46973837
   0.37253403  0.87082756  0.46255400
   0.62709847  0.09152429  0.51456402
   0.68255539  0.46024567  0.49559671
   0.55642147  0.63552074  0.53055618
   0.64781081  0.87119080  0.51206518
   0.85296588  0.13704115  0.52643700
   0.84447901  0.40410458  0.53707088
   0.89156141  0.62488861  0.51695070
   0.89465656  0.86690187  0.52988356
Direct configuration=   200
   0.21743337  0.17380180  0.56021613
   0.16839705  0.49782128  0.55523860
   0.13895109  0.64183591  0.54745116
   0.18136116  0.96704433  0.58891717
   0.42348995  0.22487091  0.58902555
   0.51065790  0.54072579  0.43474366
   0.37699012  0.62464469  0.60740688
   0.46612262  0.93958950  0.60346600
   0.92924108  0.24104358  0.36331458
   0.42511331  0.43246804  0.42247836
   0.69922255  0.81776933  0.44537719
   0.74345297  0.07680542  0.46818825
   0.98990486  0.21445242  0.50851012
   0.76314082  0.53738389  0.30167969
   0.84286240  0.80916238  0.39701699
   0.98517442  0.95724369  0.47231288
   0.10243771  0.12804671  0.54073511
   0.19672512  0.30637203  0.51059635
   0.21685778  0.71796426  0.56815178
   0.09844226  0.89680068  0.55937017
   0.37324116  0.12169365  0.58340335
   0.30607658  0.34812704  0.53075713
   0.44445685  0.71457387  0.61254082
   0.37550871  0.88690797  0.60922517
   0.63984665  0.15239403  0.52423013
   0.58612044  0.41975764  0.36915374
   0.97881662  0.12217884  0.65370237
   0.62545759  0.83836559  0.51715158
   0.95932307  0.12525634  0.44605546
   0.80976586  0.37718178  0.33613394
   0.89641303  0.56097441  0.33109235
   0.86219550  0.91994123  0.44235732
Direct configuration=   250
   0.35989949  0.13146877  0.75250437
   0.10373429  0.42272345  0.53323794
   0.14592204  0.54803809  0.56315091
   0.44343484  0.75363943  0.59922446
   0.43508924  0.24883999  0.56250291
   0.47625512  0.53617156  0.35681048
   0.26469555  0.62892722  0.66052232
   0.49394685  0.96178274  0.61588307
   0.96476343  0.36499557  0.32776010
   0.55575750  0.54216342  0.24092474
   0.57042054  0.95842989  0.45319868
   0.74931234  0.14040395  0.47877242
   0.99140849  0.22868429  0.38799447
   0.64464363  0.62869704  0.23919833
   0.70488174  0.92959967  0.41350696
   0.06533993  0.97737801  0.46838222
   0.30267279  0.12122713  0.81891218
   0.08992237  0.30049752  0.53039600
   0.15749464  0.58926678  0.64015916
   0.19406805  0.89929189  0.51818465
   0.43236117  0.10686227  0.66219246
   0.36819052  0.15841068  0.51916674
   0.22473274  0.58272495  0.74793222
   0.50941949  0.82075292  0.60922435
   0.63869016  0.19242916  0.55520867
   0.33479996  0.66404133  0.34631903
   0.31819029  0.69871185  0.56472331
   0.42759374  0.02746637  0.49632179
   0.99100188  0.08695201  0.39122348
   0.85358960  0.47347820  0.27250815
   0.77551663  0.61139455  0.21178837
   0.74545153  0.99774831  0.46216505
Direct configuration=   300
   0.61858417  0.93000805  0.83722239
   0.97438779  0.39934476  0.53505250
   0.98622585  0.42567100  0.61368925
   0.35898985  0.70865120  0.68807479
   0.41600300  0.30602997  0.55488365
   0.32582437  0.85236757  0.20049374
   0.30216363  0.60484086  0.68765322
   0.36293631  0.96018258  0.75413855
   0.00123063  0.28231940  0.28515512
   0.32198366  0.75717056  0.26246376
   0.53959498  0.05486373  0.41425279
   0.68658053  0.14362748  0.50652347
   0.05070741  0.27009651  0.37074092
   0.57419492  0.52929349  0.21373722
   0.69606293  0.99024291  0.43855417
   0.27713464  0.98659211  0.47425649
   0.59122212  0.06058450  0.80774086
   0.98127243  0.31197982  0.45030294
   0.04025714  0.52275982  0.65182884
   0.37464353  0.93149330  0.54322922
   0.48113424  0.92558874  0.79508317
   0.31989186  0.21728749  0.54259852
   0.15515038  0.62232238  0.62113543
   0.35387530  0.87333747  0.65422179
   0.53715149  0.27744082  0.54224707
   0.48598517  0.73995334  0.16062301
   0.44398471  0.53771997  0.65222197
   0.35669708  0.16318572  0.43309436
   0.25698293  0.09631119  0.39925966
   0.90541527  0.37975520  0.24204479
   0.73302147  0.46602867  0.20230769
   0.82391082  0.00614841  0.46516865
Direct configuration=   350
   0.67670606  0.75945861  0.73570891
   0.93946042  0.36008886  0.52102354
   0.92100619  0.51588701  0.57076782
   0.15525717  0.84385410  0.69524146
   0.44251998  0.46089850  0.62897439
   0.20316311  0.02768858  0.11016403
   0.14236184  0.71568810  0.63519002
   0.40367657  0.78947675  0.79425793
   0.05536519  0.24905812  0.27559550
   0.33457996  0.96746993  0.02824168
   0.53857320  0.12622444  0.38729800
   0.63266905  0.20870231  0.56117412
   0.20036785  0.26486416  0.48539824
   0.82635336  0.35669008  0.15989652
   0.65813503  0.13162835  0.38328476
   0.28178830  0.09854377  0.62753063
   0.83834008  0.67117990  0.73424916
   0.07750893  0.20066354  0.50778922
   0.08027157  0.46217917  0.58560591
   0.24117179  0.04136866  0.68377151
   0.51853672  0.82015041  0.77120792
   0.29934484  0.15646584  0.40282361
   0.26453639  0.57917310  0.61617593
   0.25483998  0.89077209  0.71571101
   0.53788502  0.36092478  0.56897642
   0.11661584  0.02421041  0.19496846
   0.40190377  0.43287177  0.70798516
   0.42962269  0.16682989  0.43722765
   0.29600703  0.17288448  0.54694420
   0.00126936  0.12207742  0.24154043
   0.84657229  0.25473643  0.22297547
   0.71679098  0.10048946  0.46230037
Direct configuration=   400
   0.61173773  0.49429691  0.68785156
   0.00278854  0.32965195  0.53856783
   0.06341119  0.43160763  0.50294593
   0.20982372  0.89754232  0.70963756
   0.48371402  0.39079081  0.69681218
   0.12668499  0.12954100  0.99760452
   0.22639589  0.76213202  0.71114443
   0.41848401  0.79340358  0.63371577
   0.17183046  0.03390290  0.34973623
   0.98938274  0.23642049  0.02430889
   0.48447386  0.11669871  0.44332332
   0.55678848  0.38036042  0.54648853
   0.08325861  0.15203245  0.55315328
   0.90761191  0.13986539  0.14597304
   0.53626327  0.20099091  0.44632756
   0.27832423  0.24098274  0.74425515
   0.77876188  0.45257911  0.72271989
   0.91931480  0.25015632  0.57409834
   0.01809273  0.56843027  0.52011327
   0.32397107  0.07629940  0.71292963
   0.59083450  0.63998182  0.63952613
   0.48805779  0.98400099  0.37394995
   0.21038087  0.64332970  0.73664846
   0.37094804  0.93541813  0.67855311
   0.50114860  0.42391577  0.61996846
   0.17954685  0.21391734  0.97402640
   0.31345193  0.47793216  0.70485160
   0.53381993  0.02447321  0.29243727
   0.24165043  0.39438004  0.75207208
   0.10607222  0.09058007  0.27775390
   0.02228536  0.13340489  0.20500836
   0.58388993  0.29417954  0.48349737
Direct configuration=   450
   0.69867533  0.41568898  0.62047316
   0.02969677  0.28241562  0.56946458
   0.99869900  0.34746345  0.49935239
   0.50287494  0.84188037  0.69936858
   0.21365692  0.65347584  0.70520088
   0.01817434  0.41841494  0.82093966
   0.21088332  0.90383522  0.75751716
   0.68374043  0.81776120  0.69979373
   0.33366456  0.87234685  0.32361725
   0.14764822  0.28659216  0.83873151
   0.50664906  0.14105120  0.36782128
   0.31562355  0.34867556  0.60714167
   0.92955446  0.24440629  0.61764530
   0.06373562  0.91252406  0.29330363
   0.41417010  0.23085983  0.45060435
   0.37197708  0.17759117  0.75797024
   0.63696800  0.43696505  0.53543443
   0.81698022  0.31218765  0.67960775
   0.03974111  0.43074004  0.44415252
   0.24389501  0.12401557  0.74048195
   0.61185018  0.75400633  0.65885989
   0.58453435  0.02480832  0.32402415
   0.19748964  0.77935546  0.71224900
   0.31499758  0.96705330  0.73139832
   0.32179373  0.47110233  0.63021927
   0.91232210  0.36845688  0.81267238
   0.52468570  0.28120765  0.83917920
   0.71908888  0.90527738  0.28889978
   0.44979824  0.22918959  0.80268530
   0.17191784  0.97664033  0.34273739
   0.03546813  0.10342995  0.30490794
   0.31224619  0.27378042  0.52354534
Direct configuration=   500
   0.63205476  0.40165644  0.56868781
   0.83041289  0.38775912  0.48366617
   0.95759875  0.27158649  0.52679090
   0.51918469  0.85051531  0.69932486
   0.04237018  0.60548925  0.65019710
   0.93183783  0.39367667  0.66074417
   0.51966267  0.71374534  0.66218267
   0.74284857  0.84209572  0.78130702
   0.39991202  0.80484580  0.33119782
   0.15006800  0.17912845  0.55279088
   0.52044729  0.18922052  0.48987425
   0.14690254  0.58973738  0.52709067
   0.79096482  0.43605074  0.65994679
   0.17005494  0.78550669  0.41184749
   0.38146358  0.29082181  0.54924396
   0.41994903  0.23374239  0.80145929
   0.71428846  0.47081265  0.57064983
   0.79855047  0.28709833  0.57394991
   0.10293467  0.07947299  0.48786298
   0.30194601  0.27444154  0.75492591
   0.63427885  0.91477984  0.70124661
   0.54989817  0.16351209  0.40846967
   0.18125245  0.58734973  0.60873200
   0.35823307  0.87643346  0.72441377
   0.96453840  0.53529265  0.66821307
   0.90500473  0.67662329  0.80270559
   0.74500448  0.07243733  0.80856120
   0.65577850  0.05686095  0.35214916
   0.58515042  0.16016538  0.82213409
   0.29577039  0.79397176  0.39420414
   0.14652470  0.96573333  0.45369885
   0.23831426  0.44263557  0.51173135
Direct configuration=   550
   0.74993310  0.31514430  0.55125280
   0.79945967  0.34202736  0.41662159
   0.90303744  0.16051399  0.41769011
   0.58847283  0.73207813  0.69172466
   0.99234191  0.49201003  0.64148611
   0.69641652  0.60407279  0.71936510
   0.73655611  0.41977474  0.65765963
   0.71819886  0.88319904  0.84200703
   0.48170848  0.72565462  0.33626479
   0.90423046  0.07736238  0.48238808
   0.38963713  0.32293540  0.49451672
   0.29058764  0.52832367  0.41857907
   0.65883848  0.47775448  0.57381237
   0.33003485  0.78770923  0.50311456
   0.24407239  0.42736573  0.52410868
   0.47400887  0.35471325  0.78073511
   0.75418233  0.47675040  0.44331634
   0.69004414  0.29410245  0.48430537
   0.15483181  0.91928696  0.45142288
   0.43041017  0.50194208  0.72979384
   0.62971036  0.85357237  0.77423414
   0.65966874  0.07406787  0.51936134
   0.98681621  0.54645454  0.50464736
   0.59957275  0.89379702  0.65512782
   0.87891169  0.56850640  0.70525055
   0.90156085  0.98948469  0.90137512
   0.75822059  0.98158166  0.86587364
   0.57421524  0.25977930  0.52623182
   0.57799457  0.24672642  0.81857933
   0.30296932  0.79586061  0.41233128
   0.36520147  0.77890629  0.58509358
   0.11135564  0.50174081  0.57172918
Direct configuration=   600
   0.67352186  0.19930211  0.56278603
   0.80088259  0.25238324  0.30570222
   0.78195822  0.16793998  0.35267971
   0.66871135  0.78454528  0.69686343
   0.88625337  0.49806346  0.61926252
   0.81020325  0.70202289  0.67499556
   0.93964473  0.26519977  0.55715050
   0.73395587  0.06229166  0.81344331
   0.25873945  0.80687326  0.42674837
   0.81006162  0.05939036  0.41883717
   0.24482069  0.37843736  0.62104587
   0.33587112  0.47501784  0.57288055
   0.80000038  0.23115481  0.54145920
   0.47805043  0.79996034  0.56812561
   0.11420779  0.47134166  0.46370751
   0.58703948  0.53855285  0.75408942
   0.79217944  0.38139495  0.26574615
   0.80783563  0.07743546  0.51341994
   0.47796872  0.48792638  0.30069471
   0.51378711  0.67571309  0.74737882
   0.64488281  0.97042137  0.83085591
   0.49416909  0.34234791  0.55313207
   0.98346418  0.43452094  0.43761440
   0.59619673  0.86944569  0.77984450
   0.87798467  0.56812048  0.72956064
   0.71253143  0.99623931  0.90153831
   0.78557302  0.03212640  0.00827683
   0.37018519  0.31509028  0.59216252
   0.54300969  0.40519352  0.75483061
   0.36003286  0.79057202  0.49922195
   0.52596486  0.86900939  0.61460507
   0.92351299  0.42516500  0.52134060
Direct configuration=   650
   0.44026913  0.36339211  0.57412210
   0.80616532  0.06077826  0.21994774
   0.73655314  0.17418429  0.31057858
   0.77431239  0.69768735  0.74540878
   0.72989165  0.56749420  0.58793692
   0.86101359  0.64028159  0.64177671
   0.86154929  0.07547265  0.49825157
   0.60685058  0.10936367  0.86042435
   0.42819818  0.75763851  0.59278848
   0.72758847  0.19915978  0.39063396
   0.20310323  0.50427273  0.66687884
   0.55687854  0.37552225  0.71346008
   0.98132032  0.05830254  0.50067490
   0.44607818  0.88177843  0.54539903
   0.94683585  0.35944001  0.41030803
   0.58760162  0.62466995  0.73937286
   0.71270297  0.27902834  0.23130693
   0.71060772  0.15767235  0.47520667
   0.74966259  0.30656361  0.13777597
   0.60345875  0.74376502  0.71724854
   0.71303342  0.98859007  0.81352486
   0.46710796  0.36437663  0.66316863
   0.96126647  0.37899950  0.48688103
   0.86031701  0.81574857  0.78403428
   0.06718659  0.55746762  0.61290347
   0.68099381  0.04445867  0.93995612
   0.62696107  0.13342221  0.00512670
   0.32128798  0.35640588  0.69355912
   0.54392602  0.50976383  0.70183907
   0.31851667  0.85364455  0.52275722
   0.45691192  0.93529594  0.66402749
   0.84505016  0.45855791  0.55272099
Direct configuration=   700
   0.27537995  0.51411120  0.58609026
   0.67366742  0.19041387  0.19240571
   0.63111238  0.32066555  0.24696785
   0.94367333  0.75927358  0.72939436
   0.01563140  0.39800626  0.56311427
   0.03508556  0.53053762  0.58108142
   0.91835315  0.95788837  0.56194796
   0.76094637  0.03516096  0.95360751
   0.25341461  0.05477496  0.60435666
   0.55386309  0.25897572  0.29290169
   0.18038914  0.63054915  0.66566715
   0.68297811  0.45468746  0.82815371
   0.05844238  0.92770626  0.55816201
   0.43399382  0.88977145  0.60775289
   0.75759113  0.27899105  0.45398945
   0.68025523  0.70163436  0.77804300
   0.75877089  0.99499624  0.15687242
   0.54966980  0.13779873  0.31503473
   0.76904932  0.94233355  0.06801382
   0.73655278  0.67729627  0.66404539
   0.82626483  0.90694550  0.88532753
   0.27341688  0.38556041  0.61786544
   0.79191143  0.37028062  0.47670841
   0.83403606  0.87764827  0.80110855
   0.99964598  0.61528444  0.67511436
   0.54359711  0.20682153  0.90153243
   0.65320763  0.09464706  0.01215081
   0.33219721  0.45180197  0.68531173
   0.68540699  0.58830414  0.81701967
   0.19360668  0.97713886  0.57620655
   0.58773917  0.82279580  0.66177304
   0.94335077  0.38039778  0.48227919
Direct configuration=   750
   0.10312111  0.66011130  0.58713681
   0.65463503  0.17612470  0.16646063
   0.69435044  0.03615799  0.10969886
   0.03417385  0.61371272  0.73273728
   0.90430323  0.47145380  0.56359725
   0.87427690  0.64292829  0.59179056
   0.21106404  0.83136319  0.62223542
   0.01623580  0.64756208  0.90621027
   0.29477196  0.93884167  0.62880593
   0.42253907  0.18363217  0.18707963
   0.19686872  0.60411647  0.75253509
   0.82133100  0.72256367  0.94201606
   0.04911510  0.00141040  0.63440237
   0.43512480  0.86842414  0.63090116
   0.70154799  0.44101044  0.57667428
   0.68458749  0.69425749  0.80798248
   0.63763045  0.88057570  0.99979982
   0.40414395  0.33608088  0.20268314
   0.59517560  0.99501225  0.09071968
   0.58475834  0.74084607  0.71554291
   0.00345030  0.78526308  0.90770200
   0.38655933  0.53250216  0.61753064
   0.90244690  0.19563191  0.49659922
   0.06397489  0.71803788  0.80474576
   0.01217343  0.61705944  0.64263400
   0.54791955  0.23153534  0.89458510
   0.50832292  0.21627132  0.96063606
   0.21675049  0.69148422  0.56893276
   0.79645259  0.65223979  0.85006623
   0.12108771  0.05321586  0.67199091
   0.59653784  0.78158658  0.62877019
   0.85776978  0.37218599  0.50679748
Direct configuration=   800
   0.11637532  0.72736263  0.52689788
   0.38078362  0.11518336  0.07095193
   0.42879363  0.97513540  0.04248417
   0.13529753  0.55801832  0.68260699
   0.85762572  0.57579802  0.59615228
   0.94632472  0.62706019  0.59122506
   0.28632117  0.95556501  0.66349591
   0.03396344  0.65308239  0.96331289
   0.44247914  0.86441802  0.63118479
   0.52126336  0.10404836  0.11912753
   0.20693982  0.51735776  0.76726096
   0.90114643  0.95533049  0.90962030
   0.04630901  0.91905805  0.64176222
   0.55283740  0.84220819  0.68859799
   0.81061394  0.46212568  0.61025694
   0.53994027  0.65233658  0.80633557
   0.73958348  0.86659288  0.00652143
   0.40964041  0.27313536  0.00999776
   0.59734935  0.89491852  0.00937906
   0.60457391  0.73165411  0.84709209
   0.13282775  0.49419902  0.94725170
   0.96115084  0.93400295  0.56054935
   0.88838152  0.26945250  0.58270957
   0.23517445  0.41315907  0.82960614
   0.09702127  0.58341453  0.60472448
   0.48131949  0.30066870  0.83364909
   0.45938112  0.28430907  0.93529693
   0.06093403  0.85309660  0.47932130
   0.91722728  0.82044916  0.97216650
   0.18864430  0.91894431  0.69458922
   0.60203127  0.82113920  0.77432296
   0.75094562  0.36997458  0.60154900
Direct configuration=   850
   0.00618089  0.81813156  0.63362126
   0.49485046  0.09537076  0.94966424
   0.74393693  0.76903488  0.86964950
   0.28633448  0.55180617  0.66068324
   0.97972791  0.49103577  0.60178407
   0.09227886  0.52969998  0.65193869
   0.39395569  0.88949545  0.63162668
   0.03834198  0.70205436  0.88659362
   0.42029222  0.90124964  0.72232260
   0.59752352  0.93839754  0.99153406
   0.28407074  0.44112196  0.74541478
   0.89522014  0.96339003  0.95271671
   0.11370664  0.00184104  0.55082305
   0.40567673  0.96932031  0.80951522
   0.84381470  0.46118601  0.61985730
   0.63036192  0.59877139  0.97861717
   0.45015288  0.81984119  0.10699208
   0.51229495  0.21718855  0.92828397
   0.57061637  0.85998720  0.07232916
   0.59822016  0.69007518  0.91456735
   0.98761041  0.60825350  0.85101221
   0.01247704  0.87498069  0.54817498
   0.63661137  0.44563992  0.65660946
   0.10767693  0.45654140  0.77371654
   0.12034731  0.66853863  0.61354701
   0.32402176  0.32370147  0.79663439
   0.38343593  0.25720393  0.88051703
   0.80727860  0.98485652  0.57188752
   0.93219169  0.83900288  0.92930789
   0.25734897  0.99230036  0.56378178
   0.59611417  0.80979605  0.86022839
   0.81052829  0.36338472  0.67604804
Direct configuration=   900
   0.04716873  0.83609058  0.62896319
   0.56701772  0.09961414  0.89336440
   0.76140053  0.72660000  0.87049642
   0.22520963  0.59557529  0.72028135
   0.86891719  0.44301311  0.64748749
   0.10049854  0.52158299  0.69933793
   0.22887363  0.99941744  0.70527513
   0.82410895  0.90000352  0.81433928
   0.32651640  0.88815112  0.77136650
   0.73571788  0.93953513  0.92079834
   0.34522555  0.49251997  0.76617154
   0.86576165  0.82724152  0.96366071
   0.29852718  0.83388427  0.59675184
   0.40862114  0.77162066  0.71823602
   0.86415659  0.35199597  0.72067520
   0.52577782  0.84497898  0.05309829
   0.44801067  0.84267390  0.96252759
   0.53135579  0.01617493  0.81141683
   0.36916080  0.77533204  0.91160815
   0.63908962  0.71405372  0.98461367
   0.78127522  0.77425357  0.78633928
   0.12868627  0.02301895  0.64753717
   0.74165933  0.49807808  0.70808455
   0.20303999  0.38703117  0.73751338
   0.12516334  0.61944471  0.66478179
   0.35042453  0.33571408  0.75321327
   0.46637397  0.17360522  0.83468658
   0.14209008  0.88492761  0.58184308
   0.91496988  0.89617585  0.89078628
   0.25984890  0.05009719  0.60253219
   0.75717804  0.63395876  0.94037285
   0.48137507  0.63683453  0.69183971
Direct configuration=   950
   0.20896593  0.80480175  0.67156520
   0.58303093  0.81501257  0.80869635
   0.91755784  0.65755776  0.94837583
   0.45694176  0.53534098  0.77409796
   0.58518741  0.41418301  0.74815465
   0.12430030  0.31378910  0.65745817
   0.16628321  0.96556784  0.86744588
   0.75093766  0.00959106  0.82607759
   0.33404497  0.86976700  0.81283410
   0.70859596  0.03613043  0.69694495
   0.40575735  0.46711732  0.72566166
   0.90707980  0.75683395  0.88534499
   0.26148639  0.99639278  0.57169739
   0.49091480  0.87189507  0.70516833
   0.68632802  0.37269424  0.83292318
   0.43046883  0.93990883  0.88403539
   0.29837611  0.00411154  0.96778977
   0.28538900  0.09909820  0.89794256
   0.43873531  0.72530243  0.85407647
   0.51191664  0.86786074  0.95605646
   0.61049367  0.97330007  0.80959606
   0.24740693  0.02022794  0.67798064
   0.79024613  0.28717280  0.75314261
   0.24110123  0.34395225  0.66850073
   0.32562570  0.71407877  0.75502414
   0.38646514  0.34510709  0.69470390
   0.57539808  0.17621427  0.69528264
   0.26838094  0.88387228  0.60628234
   0.90598250  0.85163843  0.84081103
   0.08677112  0.09675139  0.72704851
   0.65585372  0.73994345  0.99741462
   0.68717721  0.37798368  0.68186591
Direct configuration=  1000
   0.39174731  0.79773046  0.60932735
   0.68596175  0.79113845  0.74299636
   0.01898824  0.73140881  0.99319130
   0.38590941  0.62580685  0.71984094
   0.33065304  0.57537424  0.79473291
   0.16359809  0.16235682  0.53955413
   0.15852887  0.18657802  0.00800457
   0.82425804  0.68603460  0.76536261
   0.44324509  0.92735389  0.97961476
   0.56368086  0.05470336  0.69905203
   0.31862658  0.48405393  0.73804975
   0.96191750  0.72843190  0.89708710
   0.13443926  0.11174186  0.62868605
   0.41883864  0.08637566  0.63602722
   0.76910717  0.16577974  0.88741333
   0.52077904  0.82558679  0.73692002
   0.32565382  0.10970597  0.95014339
   0.12457443  0.10426870  0.92701534
   0.45388873  0.76629795  0.97122787
   0.54081782  0.80331913  0.03146337
   0.29426939  0.15520475  0.72023939
   0.29643423  0.06094921  0.78912669
   0.85661647  0.22620453  0.84148459
   0.28833114  0.17483900  0.53828706
   0.37869064  0.69530022  0.65322590
   0.39926984  0.23413401  0.55025157
   0.51291811  0.15926137  0.61133769
   0.18312401  0.95393815  0.63922658
   0.91458167  0.69142900  0.81469877
   0.17863748  0.08613335  0.73124218
   0.45761870  0.09867230  0.02084206
   0.03749522  0.07308599  0.83432715
Direct configuration=  1050
   0.51969359  0.58423576  0.64362840
   0.79709370  0.56990376  0.72239239
   0.04742685  0.75245405  0.86194590
   0.21443690  0.69752325  0.67011284
   0.07187609  0.85027635  0.77196475
   0.20022686  0.04022346  0.45826016
   0.25370377  0.12997828  0.05492957
   0.85902922  0.53684546  0.81754632
   0.46323956  0.11757793  0.19752257
   0.47717332  0.23905735  0.56726432
   0.14086337  0.84319420  0.69521738
   0.97650446  0.69996253  0.85114744
   0.14646125  0.96439347  0.52102653
   0.41202031  0.17163382  0.63035510
   0.96484379  0.02995256  0.89501904
   0.67785234  0.56783974  0.68391485
   0.26355701  0.05355491  0.90555077
   0.07663319  0.13633336  0.05204500
   0.51563288  0.06218573  0.04248204
   0.54176281  0.97734508  0.12915619
   0.33075242  0.16049095  0.69221895
   0.15615946  0.19875116  0.84231927
   0.05576197  0.87265204  0.93162328
   0.28595528  0.09940338  0.43928842
   0.35565129  0.68231323  0.63901245
   0.34890869  0.19466550  0.45020632
   0.48842296  0.14541507  0.50577720
   0.18182829  0.90220709  0.59830925
   0.87876227  0.65504739  0.86379920
   0.19620735  0.23502146  0.73844588
   0.35071859  0.15375424  0.12121865
   0.08404080  0.00900643  0.00629954
Direct configuration=  1100
   0.52970090  0.49715003  0.68771687
   0.79710963  0.32057340  0.75468159
   0.95336558  0.91212073  0.79871401
   0.33470085  0.71750392  0.61400077
   0.98068507  0.95993074  0.71981380
   0.26912776  0.87768472  0.46395461
   0.03559277  0.05305044  0.11909479
   0.93029980  0.48859045  0.80016792
   0.47027164  0.12024144  0.11684046
   0.29917288  0.32148221  0.54074009
   0.09485539  0.88602771  0.64953412
   0.93078493  0.75427160  0.79400072
   0.12144905  0.86925632  0.48232349
   0.37585388  0.32489919  0.62157041
   0.25997695  0.98622326  0.03202087
   0.64646298  0.37045523  0.72583335
   0.16499806  0.12800068  0.79465111
   0.12892025  0.95992255  0.05359683
   0.55429308  0.20065677  0.24953163
   0.50015266  0.37026658  0.22355360
   0.36187551  0.23938469  0.70281114
   0.37729635  0.04770349  0.80965920
   0.07531365  0.94761462  0.78446814
   0.32021061  0.96525856  0.42674688
   0.50321594  0.61990503  0.61925276
   0.21846303  0.17263194  0.43174103
   0.31547106  0.20865310  0.47778803
   0.14833380  0.86384444  0.57077850
   0.91699418  0.60596923  0.82606964
   0.26993292  0.22091621  0.74864703
   0.40935653  0.08735869  0.19340131
   0.03896293  0.23565105  0.16629527
Direct configuration=  1150
   0.57235779  0.54686669  0.71435101
   0.62223357  0.24916152  0.75647304
   0.08620896  0.83603976  0.73684805
   0.37896258  0.54643170  0.60168447
   0.08036907  0.92556579  0.65227717
   0.22697568  0.92588898  0.47205757
   0.09685689  0.05070467  0.23344603
   0.90325235  0.57933142  0.70875061
   0.59111503  0.22068532  0.29634967
   0.13998922  0.30368648  0.60098643
   0.12258756  0.77514337  0.61561012
   0.01425065  0.76227463  0.76522917
   0.22880508  0.76914371  0.49360910
   0.30218973  0.47129715  0.59716601
   0.31334665  0.04064090  0.11423152
   0.71937595  0.31948699  0.71371691
   0.36440414  0.94045589  0.69270428
   0.20085022  0.01616650  0.16731719
   0.28098597  0.46807114  0.31607420
   0.42695449  0.29994514  0.29641932
   0.32835785  0.32175961  0.64039468
   0.31711060  0.07952904  0.69199954
   0.66677482  0.23499669  0.65546552
   0.27335207  0.97811298  0.38688586
   0.48800802  0.49299711  0.67713907
   0.15474846  0.08996691  0.46389096
   0.15961638  0.18157062  0.54567357
   0.25991376  0.69117983  0.57931990
   0.02330725  0.63098503  0.76608347
   0.36125486  0.20460008  0.68647569
   0.55751538  0.35249605  0.23150908
   0.07116957  0.02801733  0.12986080
Direct configuration=  1200
   0.67611773  0.28220105  0.80552145
   0.60949686  0.31985507  0.66220307
   0.05913598  0.87507682  0.70636513
   0.33913124  0.41080756  0.57336299
   0.10112581  0.98748461  0.65592200
   0.31387646  0.74906790  0.43098639
   0.37630580  0.93697449  0.29343073
   0.95183122  0.51625122  0.71170170
   0.40309348  0.58931282  0.40312283
   0.90058227  0.26823074  0.56144243
   0.19401777  0.84049310  0.66525930
   0.13346829  0.74183933  0.72961281
   0.35597767  0.71543193  0.51461501
   0.08388217  0.48193834  0.64269719
   0.20284993  0.98555450  0.30646842
   0.56483236  0.26155443  0.60452256
   0.41793947  0.02720050  0.62875688
   0.17880485  0.06933848  0.23312342
   0.51867819  0.29978210  0.32906911
   0.47390495  0.42292568  0.28879127
   0.25303044  0.35131297  0.59073283
   0.46939308  0.08359813  0.55855870
   0.43642989  0.38412473  0.51931502
   0.19415951  0.91837022  0.41402784
   0.60655190  0.40875940  0.74944729
   0.10899135  0.05941546  0.44373229
   0.04382117  0.12696809  0.55117252
   0.29044085  0.71332101  0.59729185
   0.13134336  0.60698633  0.64161508
   0.32924917  0.23779527  0.53678089
   0.43782079  0.48941372  0.47162713